PROGRAM STARTED AT: 12/ 17/2008 12:5:42  (mm/dd/yyy hh:mm:ss)




llllllbbbWllllGbbbllllll
ltllllbgggllllgggblllltl
llllllggllllllllggllllll
llllllggllllllllggllllll
llllllggllllllllggdlllll
llllllgdlllllllldggggggT
llllllggllllllllgggggggb
ggggdgggllllllllggllllll
bggggggggdggggdggdllllll
lllllgggggggggggggllllll
llllllllggggggggggllllll
llllllllggbbbbbgggllllll
lllllllldgbbbbbgggllllll
llllllllggbbbbbgggggdgdb
llllllllggbbbbbgggllllll
llllllllggbbbbbgglllllll
bgggggdgggbbbbbgdlllllll
Ygggggggggbbbbbgglllllll
bgggggdggggddgggggllllll
lllllllggllllllggggggggP
lllllllgglllllldgdgggggb
lllllllggllllllgglllllll
lllllllggllllllgglllllll
ltlllllggllllllggllllltl
lllllllRbllllllbglllllll