PROGRAM STARTED AT: 12/ 17/2008 12:8:34  (mm/dd/yyy hh:mm:ss)



Starting ServerSocket...
